# vtk DataFile Version 5.1
vtk output
ASCII
DATASET STRUCTURED_GRID
DIMENSIONS 101 2 101
POINTS 20402 double
0 0 -120.542 1.80813 0 -120.542 3.61626 0 -120.542 
5.42439 0 -120.542 7.23252 0 -120.542 9.04065 0 -120.542 
10.84878 0 -120.542 12.65691 0 -120.542 14.46504 0 -120.542 
16.27317 0 -120.542 18.0813 0 -120.542 19.88943 0 -120.542 
21.69756 0 -120.542 23.50569 0 -120.542 25.31382 0 -120.542 
27.12195 0 -120.542 28.93008 0 -120.542 30.73821 0 -120.542 
32.54634 0 -120.542 34.35447 0 -120.542 36.1626 0 -120.542 
37.97073 0 -120.542 39.77886 0 -120.542 41.58699 0 -120.542 
43.39512 0 -120.542 45.20325 0 -120.542 47.01138 0 -120.542 
48.81951 0 -120.542 50.62764 0 -120.542 52.43577 0 -120.542 
54.2439 0 -120.542 56.05203 0 -120.542 57.86016 0 -120.542 
59.66829 0 -120.542 61.47642 0 -120.542 63.28455 0 -120.542 
65.09268 0 -120.542 66.90081 0 -120.542 68.70894 0 -120.542 
70.51707 0 -120.542 72.3252 0 -120.542 74.13333 0 -120.542 
75.94146 0 -120.542 77.74959 0 -120.542 79.55772 0 -120.542 
81.36585 0 -120.542 83.17398 0 -120.542 84.98211 0 -120.542 
86.79024 0 -120.542 88.59837 0 -120.542 90.4065 0 -120.542 
92.21463 0 -120.542 94.02276 0 -120.542 95.83089 0 -120.542 
97.63902 0 -120.542 99.44715 0 -120.542 101.25528 0 -120.542 
103.06341 0 -120.542 104.87154 0 -120.542 106.67967 0 -120.542 
108.4878 0 -120.542 110.29593 0 -120.542 112.10406 0 -120.542 
113.91219 0 -120.542 115.72032 0 -120.542 117.52845 0 -120.542 
119.33658 0 -120.542 121.14471 0 -120.542 122.95284 0 -120.542 
124.76097 0 -120.542 126.5691 0 -120.542 128.37723 0 -120.542 
130.18536 0 -120.542 131.99349 0 -120.542 133.80162 0 -120.542 
135.60975 0 -120.542 137.41788 0 -120.542 139.22601 0 -120.542 
141.03414 0 -120.542 142.84227 0 -120.542 144.6504 0 -120.542 
146.45853 0 -120.542 148.26666 0 -120.542 150.07479 0 -120.542 
151.88292 0 -120.542 153.69105 0 -120.542 155.49918 0 -120.542 
157.30731 0 -120.542 159.11544 0 -120.542 160.92357 0 -120.542 
162.7317 0 -120.542 164.53983 0 -120.542 166.34796 0 -120.542 
168.15609 0 -120.542 169.96422 0 -120.542 171.77235 0 -120.542 
173.58048 0 -120.542 175.38861 0 -120.542 177.19674 0 -120.542 
179.00487 0 -120.542 180.813 0 -120.542 0 0 -120.542 
1.80813 -4.4286412339e-16 -120.542 3.61626 -8.8572824678e-16 -120.542 5.42439 -1.3285923702e-15 -120.542 
7.23252 -1.7714564936e-15 -120.542 9.04065 -2.2143206169e-15 -120.542 10.84878 -2.6571847403e-15 -120.542 
12.65691 -3.1000488637e-15 -120.542 14.46504 -3.5429129871e-15 -120.542 16.27317 -3.9857771105e-15 -120.542 
18.0813 -4.4286412339e-15 -120.542 19.88943 -4.8715053573e-15 -120.542 21.69756 -5.3143694807e-15 -120.542 
23.50569 -5.757233604e-15 -120.542 25.31382 -6.2000977274e-15 -120.542 27.12195 -6.6429618508e-15 -120.542 
28.93008 -7.0858259742e-15 -120.542 30.73821 -7.5286900976e-15 -120.542 32.54634 -7.971554221e-15 -120.542 
34.35447 -8.4144183444e-15 -120.542 36.1626 -8.8572824678e-15 -120.542 37.97073 -9.3001465912e-15 -120.542 
39.77886 -9.7430107145e-15 -120.542 41.58699 -1.0185874838e-14 -120.542 43.39512 -1.0628738961e-14 -120.542 
45.20325 -1.1071603085e-14 -120.542 47.01138 -1.1514467208e-14 -120.542 48.81951 -1.1957331331e-14 -120.542 
50.62764 -1.2400195455e-14 -120.542 52.43577 -1.2843059578e-14 -120.542 54.2439 -1.3285923702e-14 -120.542 
56.05203 -1.3728787825e-14 -120.542 57.86016 -1.4171651948e-14 -120.542 59.66829 -1.4614516072e-14 -120.542 
61.47642 -1.5057380195e-14 -120.542 63.28455 -1.5500244319e-14 -120.542 65.09268 -1.5943108442e-14 -120.542 
66.90081 -1.6385972565e-14 -120.542 68.70894 -1.6828836689e-14 -120.542 70.51707 -1.7271700812e-14 -120.542 
72.3252 -1.7714564936e-14 -120.542 74.13333 -1.8157429059e-14 -120.542 75.94146 -1.8600293182e-14 -120.542 
77.74959 -1.9043157306e-14 -120.542 79.55772 -1.9486021429e-14 -120.542 81.36585 -1.9928885552e-14 -120.542 
83.17398 -2.0371749676e-14 -120.542 84.98211 -2.0814613799e-14 -120.542 86.79024 -2.1257477923e-14 -120.542 
88.59837 -2.1700342046e-14 -120.542 90.4065 -2.2143206169e-14 -120.542 92.21463 -2.2586070293e-14 -120.542 
94.02276 -2.3028934416e-14 -120.542 95.83089 -2.347179854e-14 -120.542 97.63902 -2.3914662663e-14 -120.542 
99.44715 -2.4357526786e-14 -120.542 101.25528 -2.480039091e-14 -120.542 103.06341 -2.5243255033e-14 -120.542 
104.87154 -2.5686119157e-14 -120.542 106.67967 -2.612898328e-14 -120.542 108.4878 -2.6571847403e-14 -120.542 
110.29593 -2.7014711527e-14 -120.542 112.10406 -2.745757565e-14 -120.542 113.91219 -2.7900439773e-14 -120.542 
115.72032 -2.8343303897e-14 -120.542 117.52845 -2.878616802e-14 -120.542 119.33658 -2.9229032144e-14 -120.542 
121.14471 -2.9671896267e-14 -120.542 122.95284 -3.011476039e-14 -120.542 124.76097 -3.0557624514e-14 -120.542 
126.5691 -3.1000488637e-14 -120.542 128.37723 -3.1443352761e-14 -120.542 130.18536 -3.1886216884e-14 -120.542 
131.99349 -3.2329081007e-14 -120.542 133.80162 -3.2771945131e-14 -120.542 135.60975 -3.3214809254e-14 -120.542 
137.41788 -3.3657673378e-14 -120.542 139.22601 -3.4100537501e-14 -120.542 141.03414 -3.4543401624e-14 -120.542 
142.84227 -3.4986265748e-14 -120.542 144.6504 -3.5429129871e-14 -120.542 146.45853 -3.5871993994e-14 -120.542 
148.26666 -3.6314858118e-14 -120.542 150.07479 -3.6757722241e-14 -120.542 151.88292 -3.7200586365e-14 -120.542 
153.69105 -3.7643450488e-14 -120.542 155.49918 -3.8086314611e-14 -120.542 157.30731 -3.8529178735e-14 -120.542 
159.11544 -3.8972042858e-14 -120.542 160.92357 -3.9414906982e-14 -120.542 162.7317 -3.9857771105e-14 -120.542 
164.53983 -4.0300635228e-14 -120.542 166.34796 -4.0743499352e-14 -120.542 168.15609 -4.1186363475e-14 -120.542 
169.96422 -4.1629227599e-14 -120.542 171.77235 -4.2072091722e-14 -120.542 173.58048 -4.2514955845e-14 -120.542 
175.38861 -4.2957819969e-14 -120.542 177.19674 -4.3400684092e-14 -120.542 179.00487 -4.3843548215e-14 -120.542 
180.813 -4.4286412339e-14 -120.542 0 0 -118.13116 1.80813 0 -118.13116 
3.61626 0 -118.13116 5.42439 0 -118.13116 7.23252 0 -118.13116 
9.04065 0 -118.13116 10.84878 0 -118.13116 12.65691 0 -118.13116 
14.46504 0 -118.13116 16.27317 0 -118.13116 18.0813 0 -118.13116 
19.88943 0 -118.13116 21.69756 0 -118.13116 23.50569 0 -118.13116 
25.31382 0 -118.13116 27.12195 0 -118.13116 28.93008 0 -118.13116 
30.73821 0 -118.13116 32.54634 0 -118.13116 34.35447 0 -118.13116 
36.1626 0 -118.13116 37.97073 0 -118.13116 39.77886 0 -118.13116 
41.58699 0 -118.13116 43.39512 0 -118.13116 45.20325 0 -118.13116 
47.01138 0 -118.13116 48.81951 0 -118.13116 50.62764 0 -118.13116 
52.43577 0 -118.13116 54.2439 0 -118.13116 56.05203 0 -118.13116 
57.86016 0 -118.13116 59.66829 0 -118.13116 61.47642 0 -118.13116 
63.28455 0 -118.13116 65.09268 0 -118.13116 66.90081 0 -118.13116 
68.70894 0 -118.13116 70.51707 0 -118.13116 72.3252 0 -118.13116 
74.13333 0 -118.13116 75.94146 0 -118.13116 77.74959 0 -118.13116 
79.55772 0 -118.13116 81.36585 0 -118.13116 83.17398 0 -118.13116 
84.98211 0 -118.13116 86.79024 0 -118.13116 88.59837 0 -118.13116 
90.4065 0 -118.13116 92.21463 0 -118.13116 94.02276 0 -118.13116 
95.83089 0 -118.13116 97.63902 0 -118.13116 99.44715 0 -118.13116 
101.25528 0 -118.13116 103.06341 0 -118.13116 104.87154 0 -118.13116 
106.67967 0 -118.13116 108.4878 0 -118.13116 110.29593 0 -118.13116 
112.10406 0 -118.13116 113.91219 0 -118.13116 115.72032 0 -118.13116 
117.52845 0 -118.13116 119.33658 0 -118.13116 121.14471 0 -118.13116 
122.95284 0 -118.13116 124.76097 0 -118.13116 126.5691 0 -118.13116 
128.37723 0 -118.13116 130.18536 0 -118.13116 131.99349 0 -118.13116 
133.80162 0 -118.13116 135.60975 0 -118.13116 137.41788 0 -118.13116 
139.22601 0 -118.13116 141.03414 0 -118.13116 142.84227 0 -118.13116 
144.6504 0 -118.13116 146.45853 0 -118.13116 148.26666 0 -118.13116 
150.07479 0 -118.13116 151.88292 0 -118.13116 153.69105 0 -118.13116 
155.49918 0 -118.13116 157.30731 0 -118.13116 159.11544 0 -118.13116 
160.92357 0 -118.13116 162.7317 0 -118.13116 164.53983 0 -118.13116 
166.34796 0 -118.13116 168.15609 0 -118.13116 169.96422 0 -118.13116 
171.77235 0 -118.13116 173.58048 0 -118.13116 175.38861 0 -118.13116 
177.19674 0 -118.13116 179.00487 0 -118.13116 180.813 0 -118.13116 
0 0 -118.13116 1.80813 -4.4286412339e-16 -118.13116 3.61626 -8.8572824678e-16 -118.13116 
5.42439 -1.3285923702e-15 -118.13116 7.23252 -1.7714564936e-15 -118.13116 9.04065 -2.2143206169e-15 -118.13116 
10.84878 -2.6571847403e-15 -118.13116 12.65691 -3.1000488637e-15 -118.13116 14.46504 -3.5429129871e-15 -118.13116 
16.27317 -3.9857771105e-15 -118.13116 18.0813 -4.4286412339e-15 -118.13116 19.88943 -4.8715053573e-15 -118.13116 
21.69756 -5.3143694807e-15 -118.13116 23.50569 -5.757233604e-15 -118.13116 25.31382 -6.2000977274e-15 -118.13116 
27.12195 -6.6429618508e-15 -118.13116 28.93008 -7.0858259742e-15 -118.13116 30.73821 -7.5286900976e-15 -118.13116 
32.54634 -7.971554221e-15 -118.13116 34.35447 -8.4144183444e-15 -118.13116 36.1626 -8.8572824678e-15 -118.13116 
37.97073 -9.3001465912e-15 -118.13116 39.77886 -9.7430107145e-15 -118.13116 41.58699 -1.0185874838e-14 -118.13116 
43.39512 -1.0628738961e-14 -118.13116 45.20325 -1.1071603085e-14 -118.13116 47.01138 -1.1514467208e-14 -118.13116 
48.81951 -1.1957331331e-14 -118.13116 50.62764 -1.2400195455e-14 -118.13116 52.43577 -1.2843059578e-14 -118.13116 
54.2439 -1.3285923702e-14 -118.13116 56.05203 -1.3728787825e-14 -118.13116 57.86016 -1.4171651948e-14 -118.13116 
59.66829 -1.4614516072e-14 -118.13116 61.47642 -1.5057380195e-14 -118.13116 63.28455 -1.5500244319e-14 -118.13116 
65.09268 -1.5943108442e-14 -118.13116 66.90081 -1.6385972565e-14 -118.13116 68.70894 -1.6828836689e-14 -118.13116 
70.51707 -1.7271700812e-14 -118.13116 72.3252 -1.7714564936e-14 -118.13116 74.13333 -1.8157429059e-14 -118.13116 
75.94146 -1.8600293182e-14 -118.13116 77.74959 -1.9043157306e-14 -118.13116 79.55772 -1.9486021429e-14 -118.13116 
81.36585 -1.9928885552e-14 -118.13116 83.17398 -2.0371749676e-14 -118.13116 84.98211 -2.0814613799e-14 -118.13116 
[...]
CELL_DATA 10000
FIELD FieldData 3
Flux%20(Mean)%20[cm] 1 10000 double
0.0051863602141 0.0059352329342 0.0068023765106 0.00752794156 0.0086414080564 0.0095550322892 0.010401530828 0.010973948801 0.011991844148 
0.013077190089 0.013948574402 0.015010530935 0.015832569683 0.016798684935 0.01755444673 0.018510111948 0.019633024164 0.020515437747 
0.021907296036 0.023028091531 0.023646068908 0.024886300997 0.026110503598 0.027210558169 0.02845618502 0.029977789595 0.031013040539 
0.032078807786 0.03306519171 0.034513835454 0.035783884631 0.037191245034 0.038753807676 0.039542982858 0.041324268033 0.043599844666 
0.045441452155 0.045810616578 0.0485511817 0.050081256762 0.052290417994 0.054760990265 0.056797635769 0.059611090111 0.063941408142 
0.069092610174 0.080678898847 0.10557993583 0.18136633014 0.46514535061 0.56826835471 0.17738706438 0.10421026943 0.081182528577 
0.070507743866 0.064229824007 0.060157074778 0.056405214631 0.05408506851 0.052092339865 0.049548343975 0.048682360946 0.047248230119 
0.045049698725 0.044209513838 0.042559887066 0.040894381433 0.040004379601 0.037755250016 0.036101308183 0.035245248913 0.033878614924 
0.032303902154 0.030798425742 0.029730128498 0.028715699623 0.02738263186 0.026474193246 0.025131502389 0.02452163951 0.022892258035 
0.021476627438 0.02097288922 0.019993356465 0.019028328462 0.017351677442 0.016744720003 0.016017800111 0.014739629556 0.013877974767 
0.012912908484 0.012083019375 0.011174606406 0.010184338222 0.0091282138285 0.008317774074 0.0075560254176 0.0066785593268 0.0058073831014 
0.0051042268633 0.015378693273 0.017952190355 0.020422068803 0.022858588538 0.025835086044 0.028755778113 0.03047488744 0.033723726203 
0.036100684246 0.039177566578 0.042131018727 0.044365174336 0.046939660972 0.049859388619 0.0528296274 0.05579696929 0.058575005289 
0.061787786356 0.065480877018 0.068604785854 0.070507735284 0.074605382967 0.078523885608 0.08183857023 0.084911578226 0.089100747125 
0.092445770326 0.096831022715 0.099670596495 0.10423291904 0.10749655282 0.11142030817 0.11646854078 0.12023581118 0.12525344254 
0.13047036389 0.13481813312 0.13961885672 0.14551526952 0.1499553055 0.155784321 0.16240288188 0.169197498 0.17800083267 
0.19004792048 0.20647119318 0.23578333676 0.29653771093 0.44553102509 0.86500532328 0.99355805121 0.44931657886 0.29631383761 
0.23722263041 0.20810908069 0.19078324709 0.1786984674 0.16954670162 0.16228380096 0.15629145736 0.15041035226 0.14502372472 
0.13965845174 0.13546796479 0.13122277519 0.12663691484 0.12179885058 0.11792466376 0.11365905869 0.10839664891 0.10499957254 
0.10178420821 0.096489896492 0.092914685772 0.089126819241 0.085829559702 0.083001567554 0.078770588014 0.076128745754 0.072596229667 
0.069257288448 0.065460834136 0.062853545141 0.059792291917 0.056166723397 0.052774105042 0.05027986334 0.047812781385 0.045075560302 
0.04159300175 0.039063840073 0.036508432267 0.03348283273 0.030409616697 0.027413081712 0.024955830524 0.022660812593 0.019951553 
0.017868508854 0.015624183197 0.026013460541 0.029698801981 0.033578874711 0.037735467494 0.042645220355 0.047583009474 0.051172655282 
0.055766669107 0.060241493939 0.064917204084 0.069777910238 0.074371515317 0.079102244835 0.083298363128 0.08861822391 0.093690863946 
0.099163246979 0.1050760267 0.10965601714 0.11478420936 0.1198324409 0.12598847867 0.13099627269 0.13552510927 0.14266793981 
0.14763301585 0.15408019779 0.16130349027 0.16685381297 0.17313652029 0.18046841377 0.18838119175 0.19482080212 0.20115933588 
0.20967621917 0.21653384774 0.22522877188 0.23221743213 0.24066653158 0.24929647765 0.25878664333 0.27120306601 0.28197728984 
0.29607310537 0.3137068669 0.33909123834 0.37774525168 0.45060752847 0.59498557528 0.9304546069 1.0265054237 0.59966252325 
0.45143457016 0.38028078391 0.34110428761 0.31507994279 0.29630352996 0.28333347496 0.26957800349 0.25924214325 0.25106371499 
0.24259263555 0.23450748928 0.22544435128 0.2175285626 0.21004583163 0.20287535576 0.19574498476 0.18881970803 0.18142211386 
0.1746537818 0.16780829245 0.16185598036 0.15517290703 0.14910398519 0.14264252391 0.13743737411 0.13146833616 0.12523836806 
0.12039528519 0.11401568597 0.11069278476 0.10445379675 0.098084545925 0.093409685643 0.088445599823 0.083168960674 0.079246541221 
0.074009870576 0.06925128183 0.065256495538 0.061000049058 0.056044330289 0.051496324513 0.046904798696 0.042120590441 0.037426022985 
0.03327028062 0.029592992749 0.026048588233 0.035966307458 0.041230891788 0.047433917062 0.052825307673 0.059770488993 0.065707655064 
0.071659608811 0.078241645264 0.084527243073 0.090923440168 0.097117887408 0.10385009782 0.11049262304 0.11666442054 0.12354545801 
0.13099204729 0.13762585685 0.14512192864 0.15276101864 0.16052749607 0.16727474813 0.1746995398 0.18269676185 0.19048226454 
0.19942523945 0.20690338558 0.2165065876 0.2249255576 0.23424341158 0.24322431009 0.25300396477 0.26271125774 0.27254689021 
0.28161535435 0.2933510557 0.30349261705 0.31440062864 0.32504746129 0.33722478346 0.34990168007 0.36329401132 0.37834325303 
0.39408504913 0.41133909887 0.43340947116 0.46384516244 0.50442982843 0.56942296575 0.66938944525 0.799351961 0.8169285479 
0.6829922006 0.57818154285 0.50968891903 0.46536826722 0.43576335346 0.41253996032 0.39323124073 0.37769695357 0.36372756122 
0.35023688458 0.33994009267 0.32643346618 0.31444202005 0.30341013869 0.29427487588 0.28452687305 0.27324484028 0.26313029941 
0.25314708516 0.24375399254 0.23512994159 0.22743344656 0.2162016092 0.20852851561 0.20042685593 0.19105340386 0.18323828454 
0.17578052993 0.16793476931 0.16008302601 0.15317050088 0.14539757531 0.13838747109 0.1306014106 0.12361281912 0.11751701844 
0.11098959735 0.1039096389 0.097419662241 0.090633146308 0.084340157662 0.077682033371 0.072220151142 0.065495725482 0.05916278879 
0.052797047442 0.046555141542 0.041110822124 0.035758375429 0.04546830576 0.052432660411 0.059982012438 0.067179813824 0.076182203619 
0.084023615953 0.092543514876 0.10031439741 0.10795274941 0.11603026599 0.12539130324 0.13408327596 0.14283918412 0.15012475433 
0.15981379251 0.16806782258 0.17796595276 0.18706652449 0.19580360798 0.20770597241 0.21622668166 0.22575314805 0.23511374098 
0.24443870698 0.2565334845 0.26815735105 0.27819107129 0.28941504683 0.30129239189 0.31219944628 0.32452122409 0.33680173672 
0.34730683437 0.36245424262 0.37666336495 0.3906041042 0.40427005066 0.41858787115 0.43260973218 0.4486484986 0.46668705699 
0.48389921252 0.5039500161 0.52533021561 0.55253524964 0.58425339609 0.62507644418 0.67720302216 0.7434367317 0.80297597247 
0.80935108181 0.75084842854 0.68728811049 0.62934957066 0.58465032609 0.55173312748 0.52559641881 0.5066751215 0.48692110667 
0.46762695563 0.45317527478 0.43765841735 0.42202443249 0.40616825766 0.39061551075 0.37816376679 0.36371459011 0.350158158 
0.33801138434 0.32602807206 0.31313627427 0.30261731337 0.29040689076 0.27871998601 0.26752678348 0.2576677007 0.24704180733 
0.23537577643 0.22511794032 0.21543874615 0.20599916975 0.19616329327 0.18723972481 0.17844714262 0.16837063521 0.15964361378 
0.15088929901 0.14215269658 0.1339187265 0.12495527686 0.11573474455 0.10776615921 0.1001122486 0.091170080948 0.083805963997 
0.076100673542 0.067830612158 0.05960788295 0.052258534747 0.045619119012 0.054298460231 0.063341144957 0.072609206547 0.082623330253 
0.092403515524 0.1019075857 0.11273502302 0.12237948314 0.13237189318 0.14285165586 0.15299014772 0.16319627229 0.17310605234 
0.18328719605 0.19550764401 0.20585604935 0.21759970014 0.22843392424 0.23872586961 0.25262238371 0.26373486625 0.27546957753 
0.28777763376 0.300072867 0.31297712803 0.32770511386 0.33899595988 0.35456533375 0.36751382434 0.38092602176 0.39617801407 
0.41231590192 0.42478720165 0.44316744805 0.45999269291 0.47377492497 0.49253819829 0.51202167538 0.53003421152 0.55037205121 
0.56913928078 0.59179505007 0.61562096813 0.6396841074 0.66860881439 0.70103863685 0.74007345346 0.78520445036 0.82772721726 
0.85807814438 0.86008687968 0.83146050094 0.78703841969 0.74164960929 0.70296706078 0.66900349413 0.64209761174 0.6138805858 
0.59437223403 0.57336878717 0.55159845984 0.53411051389 0.51844699012 0.49676368144 0.47762708341 0.46104016904 0.44394901498 
0.42782169168 0.41175786071 0.39765990037 0.38231019554 0.37034998254 0.35506491786 0.34043317099 0.32668458779 0.31425532345 
0.30098710468 0.28900666337 0.27569562553 0.26323269205 0.25192575288 0.24006040775 0.22892056297 0.21752055165 0.20555750168 
0.19508076543 0.18443740086 0.17408912455 0.16321495643 0.15209059528 0.14268387748 0.13268960097 0.12342824281 0.1125535433 
0.10232471185 0.091642406536 0.083206249621 0.073222165146 0.062959540266 0.054397642216 0.062514416182 0.074321740825 0.085868704932 
0.097230440375 0.10925853549 0.12127879876 0.13366477 0.14529804058 0.15619513371 0.16898322192 0.18068006248 0.19241159332 
0.20470308639 0.21682943295 0.23039251292 0.24403035883 0.25638330683 0.26995650047 0.28301914161 0.29730687049 0.31286883073 
0.32520812163 0.34039902479 0.35430610925 0.36952427516 0.38581430443 0.40134554955 0.4184971959 0.43544769579 0.44970211532 
0.46959315987 0.48662784931 0.50327777521 0.5245969119 0.54239302941 0.56095417806 0.58131475208 0.60375032204 0.62479288825 
0.65110146901 0.67068215802 0.69782093605 0.72529375271 0.75251607881 0.78387709262 0.82014733323 0.85214007633 0.8893776855 
0.92035150411 0.94308016621 0.94356279519 0.9241560895 0.89087806794 0.85644544415 0.81789512147 0.78460941783 0.75332990579 
0.72493585534 0.70050880525 0.67803025912 0.65227978162 0.63033659099 0.60887765686 0.58569383349 0.56370759424 0.54597160591 
0.52579479884 0.50641323296 0.48812553154 0.47128495908 0.45313714848 0.43677381572 0.42021490907 0.40196996583 0.38622441141 
0.3713510234 0.35794278849 0.34269201752 0.32690775234 0.31193160428 0.29770957081 0.2843347723 0.27108030154 0.25633190325 
0.24445892345 0.23138866222 0.21760440811 0.20566202124 0.19333468517 0.18125853863 0.16872761129 0.15719785896 0.14584220328 
0.13405554444 0.12241318318 0.10962789711 0.097753496238 0.086423318719 0.07370480636 0.061842428477 0.070447841717 0.085318734615 
0.099447325099 0.1140998775 0.12722190954 0.14096462659 0.15373718855 0.167709367 0.18208127723 0.19555976488 0.20772624729 
0.22166546146 0.23560500295 0.24992079094 0.2646498511 0.28049755093 0.29624604842 0.31270438593 0.32732705549 0.34354653194 
0.35935742688 0.37853487509 0.39485561456 0.40808110476 0.42575885284 0.44485293783 0.46339807792 0.48237093978 0.50129812489 
0.52013487554 0.54151204628 0.56226103074 0.58306975466 0.60423646404 0.62577503227 0.64819839116 0.67333547877 0.69650371687 
0.72074359936 0.74644128256 0.77510329663 0.80492398311 0.83559742266 0.8649260185 0.89802084405 0.93355445329 0.96890542041 
1.0017689227 1.0265497771 1.0421241539 1.0441502607 1.0306625638 1.0024106082 0.97266538832 0.9363858745 0.90205927222 
0.86858670747 0.83746037714 0.80592099765 0.77885848451 0.75324336039 0.72772879607 0.70066656351 0.67530988895 0.64940718176 
0.62784385718 0.60703417489 0.58380255993 0.56279163615 0.54330368777 0.52243675662 0.50200532574 0.48360664333 0.46306341769 
0.44560050637 0.42718482442 0.41148648714 0.39551009408 0.37744673748 0.36169865549 0.34261828813 0.32774192197 0.31176557467 
0.29737162482 0.28320512421 0.26661470815 0.25237490791 0.23731063367 0.22492096304 0.21033252639 0.19621109251 0.18291347289 
0.16795645926 0.15564127896 0.14175021239 0.12864073632 0.1132177353 0.099455385425 0.085663905028 0.06995464132 0.069892075568 
0.091125623679 0.10917661703 0.12397749879 0.14054002575 0.155792064 0.17167078855 0.18675333262 0.20172899045 0.2173440263 
0.23151824755 0.24813245822 0.26367395465 0.28021781919 0.2966880585 0.31587188465 0.33174678302 0.35193731332 0.36527202572 
0.38470484946 0.40588462265 0.42385679815 0.44332177454 0.46096926889 0.48210350499 0.50276095079 0.52365419451 0.54378117097 
0.5677269822 0.58905095502 0.61246210487 0.63691496549 0.66308997435 0.68722804274 0.71162048705 0.73824741403 0.76470934615 
0.79368866172 0.82180148127 0.85252687311 0.88461761653 0.92069158472 0.95362875776 0.98968634756 1.0249041764 1.0688970602 
1.1040047683 1.1386892006 1.1577412973 1.1738006906 1.1772531356 1.1659231188 1.1407503971 1.1068777532 1.0713528726 
1.0345283941 0.99461146952 0.95728014892 0.92114826989 0.89277997041 0.859815646 0.82762161589 0.7988409336 0.76937288324 
0.73979875256 0.71513305378 0.68846700435 0.6653935255 0.63768586426 0.61615220422 0.59200585392 0.56786873727 0.54913420941 
0.5240935288 0.50271804254 0.48103592939 0.46465952062 0.44617333588 0.42511665061 0.40630255161 0.38660200686 0.36934643079 
0.35122987067 0.33195922032 0.31634704372 0.29964856512 0.28278347274 0.26596209017 0.25112346192 0.23319660961 0.21848131615 
0.20351233557 0.18689073714 0.17245198472 0.15606922631 0.140733624 0.12514530475 0.10860248119 0.091545702919 0.071220374078 
0.056623506574 0.083932431071 0.10525691423 0.12315112826 0.14294493868 0.16071641666 0.17869583869 0.19594607723 0.21415387337 
0.23157555187 0.24792073849 0.26538037275 0.28390602952 0.30267123568 0.31996063773 0.3410922856 0.36028796603 0.38093352273 
0.3987054595 0.4208192673 0.44021988969 0.46241906062 0.48295069641 0.50512149978 0.52889067171 0.55292104565 0.57550557196 
0.60066032487 0.62388198008 0.65033742409 0.67452173076 0.70367395165 0.73267317101 0.76013615696 0.79059436227 0.81893063364 
0.85246516744 0.88585758128 0.9181618943 0.95603868465 0.99313298214 1.030143921 1.0703758087 1.1152879371 1.153911136 
1.1962497501 1.2372644801 1.2710517014 1.2956282718 1.307847655 1.3100225671 1.2989859534 1.2758215234 1.2440261722 
1.2017225606 1.1607732678 1.1203704597 1.0775044617 1.0389069481 1.0015030312 0.96344077672 0.92738572072 0.89501049486 
0.85789267397 0.82590830048 0.7953997681 0.76654821781 0.73500352358 0.70504860244 0.67968419253 0.6533717925 0.62824504341 
0.60165482298 0.57616334556 0.55185256698 0.53051719948 0.50725453466 0.48583140373 0.46485164583 0.44331952562 0.42116893934 
0.40080151014 0.38185351656 0.36187244066 0.34376408454 0.32273784193 0.30458837158 0.28639948006 0.26680299226 0.2492725948 
0.23151746083 0.21338380911 0.19470451325 0.17992615551 0.16127813216 0.14287320484 0.12510842122 0.10569870279 0.084272675137 
0.058194679135 0.051762169787 0.080375804498 0.10455290054 0.12670524643 0.14776808031 0.16983039402 0.18788426939 0.20947377864 
0.22912467682 0.24683162498 0.26695817869 0.2872988823 0.30778151282 0.32560566009 0.34655006348 0.36864590328 0.38944774177 
0.41133837011 0.43046066572 0.45482182541 0.47699931826 0.49998238084 0.52570099302 0.54662173464 0.57338665536 0.59922070675 
0.62581856529 0.65097640582 0.6794847073 0.70632883793 0.73219996547 0.76687012429 0.79844896844 0.82829547087 0.85978524751 
0.89394934874 0.92870512696 0.9653874986 1.0031929814 1.045062197 1.0865996412 1.1233496008 1.1681647431 1.2117153196 
1.2527467261 1.2991135806 1.33585321 1.3649249788 1.3910291993 1.4034127573 1.4054201736 1.3974142652 1.3747041682 
1.3394839005 1.299574666 1.2596555411 1.2190098549 1.1716171635 1.1314146653 1.0931807504 1.0495301378 1.0111168867 
0.97235659077 0.93622838777 0.89894551285 0.86490645138 0.83223656349 0.79842367309 0.76762277814 0.73878479138 0.71041127084 
0.68292330496 0.65504057546 0.62474574101 0.60178020552 0.5753156017 0.54882314517 0.52502517595 0.50153440979 0.48071779434 
0.45618293208 0.43395971144 0.40965344821 0.39191528988 0.37141060719 0.34985897391 0.32744100575 0.3064251336 0.28622046919 
0.26709470771 0.24733047484 0.22675526125 0.20848359329 0.18958261371 0.17073596227 0.15075796366 0.12872191353 0.1063350562 
0.082166926642 0.052564453704 0.049247294424 0.079556023968 0.1061684957 0.13100489518 0.15470477008 0.17777109381 0.19917456901 
0.220311931 0.24247039735 0.263676631 0.28364540124 0.30596617119 0.32896119135 0.35020554921 0.37061978606 0.39508202773 
0.41874030378 0.4395020932 0.46316261139 0.48666923781 0.51277495463 0.53783906855 0.56337277637 0.59206709223 0.61929087774 
0.64477978697 0.67298101546 0.70170913355 0.73261494342 0.76135334278 0.79155517671 0.8244587131 0.85939000307 0.89042031382 
0.92386938611 0.96263301174 1.0035633802 1.0397796072 1.0816453095 1.1239821878 1.1649070731 1.2065733205 1.2531138332 
1.2974660719 1.3402972059 1.3850451518 1.4197105252 1.4497126425 1.4693360142 1.4822877376 1.4824159179 1.4735230194 
1.4522992285 1.4218344559 1.3811238701 1.3423306701 1.3035966964 1.2587745941 1.2153142468 1.1720165751 1.1296077827 
1.0863625027 1.044675794 1.0071839063 0.97127231978 0.93495212406 0.89585877575 0.86302487261 0.83196201213 0.79657147545 
0.76511668534 0.73346112632 0.70498171378 0.67260712364 0.64488728568 0.61968776787 0.59221653728 0.56487349953 0.54137000536 
0.51756204976 0.49351726807 0.46697557121 0.44391975779 0.42149533195 0.3964385224 0.37314645217 0.35052237336 0.32972899084 
0.30605681454 0.28525025371 0.26350280125 0.24292518329 0.21862355322 0.19886053258 0.17840624985 0.1559880738 0.13303125766 
0.10739084259 0.080602722572 0.049617485288 0.048491454392 0.079791319057 0.10869515704 0.13549850733 0.15967563585 0.18518816165 
0.20734195251 0.2322773344 0.25628039191 0.27929882029 0.30158668455 0.32492501358 0.35028711284 0.37310613596 0.39354322502 
0.41977505147 0.44671486348 0.47094840124 0.49752928814 0.52126610906 0.54626212962 0.57332322479 0.6003405446 0.62897429652 
0.66103815264 0.69088662031 0.71944447625 0.74885954355 0.77763012609 0.81288975607 0.84484090899 0.87982259472 0.91765975735 
0.95147407677 0.98714231247 1.0271938168 1.0688004963 1.1107446307 1.1533930204 1.192444205 1.2374231724 1.2830630672 
1.3280118907 1.3707476176 1.4169072996 1.454931369 1.4887380091 1.5185322443 1.539727584 1.5531840856 1.5513586478 
1.5366919709 1.5217409313 1.4907084383 1.4538188468 1.4186384153 1.3764591001 1.3295720414 1.2880526224 1.2447080526 
1.2022033307 1.1586554246 1.1154758699 1.0761432545 1.0346297694 0.99483538615 0.95805270304 0.91871907721 0.88526719447 
0.84995798275 0.8170471463 0.78415568228 0.75064849766 0.72109197537 0.69027244707 0.65901455873 0.63140745934 0.60471606129 
0.57867386047 0.55251261445 0.52478472604 0.49829622361 0.47379291804 0.44971776171 0.42380177492 0.39604834181 0.37260574683 
0.35060753346 0.32865408642 0.30464031555 0.27987296627 0.25882612944 0.23382901543 0.20955059433 0.18641561501 0.1609892637 
0.13618665352 0.1097731422 0.080920306176 0.04935092201 0.049619906437 0.081765206176 0.11156319058 0.13997740152 0.16642349874 
0.19391753033 0.21837075026 0.24478907182 0.27156453359 0.29347829929 0.31756643905 0.34384950285 0.37080473634 0.39365198133 
0.42112075804 0.44662507732 0.47201495329 0.49798730979 0.52626518178 0.55333241162 0.58075012206 0.60895576479 0.63768448843 
0.66781635595 0.69964423796 0.73220226549 0.76525286214 0.7955614158 0.82768546269 0.86129475069 0.89525816384 0.93363684915 
0.96955491757 1.0072415284 1.0451638805 1.0866120302 1.1277457392 1.174151119 1.2178657441 1.2599300224 1.3022259662 
1.3480500616 1.3939426605 1.4380660376 1.4799936539 1.5155321519 1.551016382 1.5806239684 1.6001598834 1.6102370477 
1.6088843988 1.5960603268 1.5806958671 1.5526105892 1.5141704771 1.4813199082 1.4394765976 1.3949404266 1.3520867183 
1.3106979653 1.2660808373 1.2259677896 1.1789201097 1.1376666492 1.0947400355 1.0527621665 1.0146378628 0.97240900675 
0.93647277267 0.9021810727 0.86562022133 0.83461969904 0.79837688514 0.76598319291 0.73437344947 0.70078838099 0.66807161932 
0.64173760733 0.61453987783 0.58266986785 0.55667769063 0.52908736314 0.50251932159 0.47644391845 0.45106811092 0.42163464519 
0.39618425544 0.3703358869 0.34630865963 0.32009445981 0.29673529152 0.27157070575 0.24467622704 0.21970500315 0.19504976738 
0.16756668613 0.140931652 0.11349749095 0.082204674202 0.049402787569 0.050229708796 0.083626489879 0.1146617775 0.14380437449 
0.17388137747 0.20163965848 0.22815601156 0.25592180782 0.28313717387 0.30993237761 0.33534757015 0.36321782717 0.38890120524 